100
Atoms. Timestep: 0
1 3.5355 16.2635 9.8995
1 4.2426 16.2635 9.1924
1 4.2426 16.9706 8.4853
1 3.5355 16.9706 7.7782
1 3.5355 17.6777 7.0711
1 4.2426 17.6777 7.7782
1 4.2426 18.3848 7.0711
1 3.5355 19.0919 7.0711
1 4.2426 19.799 7.0711
1 4.9497 19.799 7.7782
1 4.2426 19.799 8.4853
1 3.5355 20.5061 8.4853
1 3.5355 19.799 9.1924
1 4.2426 20.5061 9.1924
1 4.9497 19.799 9.1924
1 4.2426 19.0919 9.1924
1 4.2426 18.3848 8.4853
1 4.2426 17.6777 9.1924
1 4.9497 17.6777 8.4853
1 5.6569 16.9706 8.4853
1 4.9497 16.9706 9.1924
1 4.9497 17.6777 9.8995
1 4.2426 17.6777 10.6066
1 4.2426 18.3848 11.3137
1 4.2426 17.6777 12.0208
1 4.9497 16.9706 12.0208
1 5.6569 16.9706 11.3137
1 6.364 16.2635 11.3137
1 7.0711 16.2635 12.0208
1 7.7782 16.2635 11.3137
1 8.4853 16.2635 12.0208
1 7.7782 16.9706 12.0208
1 7.0711 16.9706 11.3137
1 7.0711 17.6777 10.6066
1 6.364 18.3848 10.6066
1 5.6569 18.3848 11.3137
1 6.364 17.6777 11.3137
1 6.364 16.9706 10.6066
1 5.6569 17.6777 10.6066
1 4.9497 17.6777 11.3137
1 5.6569 17.6777 12.0208
1 4.9497 17.6777 12.7279
1 4.9497 18.3848 13.435
1 4.9497 19.0919 12.7279
1 5.6569 19.799 12.7279
1 4.9497 19.799 12.0208
1 4.2426 19.799 12.7279
1 3.5355 20.5061 12.7279
1 3.5355 0 13.435
1 4.2426 0 14.1421
1 4.9497 0.7071 14.1421
1 5.6569 0 14.1421
1 5.6569 20.5061 13.435
1 4.9497 20.5061 12.7279
1 5.6569 20.5061 12.0208
1 6.364 0 12.0208
1 6.364 0.7071 12.7279
1 5.6569 1.4142 12.7279
1 4.9497 1.4142 13.435
1 4.2426 2.1213 13.435
1 4.2426 2.8284 14.1421
1 3.5355 2.8284 13.435
1 2.8284 2.8284 14.1421
1 2.1213 2.1213 14.1421
1 2.1213 2.8284 14.8492
1 1.4142 2.1213 14.8492
1 1.4142 1.4142 15.5563
1 0.7071 1.4142 14.8492
1 0.7071 0.7071 14.1421
1 0 0 14.1421
1 0.7071 20.5061 14.1421
1 1.4142 0 14.1421
1 1.4142 20.5061 13.435
1 0.7071 20.5061 12.7279
1 0.7071 19.799 13.435
1 0 19.0919 13.435
1 20.5061 19.0919 12.7279
1 0 19.0919 12.0208
1 0.7071 18.3848 12.0208
1 1.4142 18.3848 11.3137
1 2.1213 19.0919 11.3137
1 2.1213 18.3848 12.0208
1 2.8284 17.6777 12.0208
1 2.1213 17.6777 11.3137
1 2.1213 16.9706 12.0208
1 1.4142 17.6777 12.0208
1 1.4142 18.3848 12.7279
1 2.1213 18.3848 13.435
1 2.8284 19.0919 13.435
1 2.1213 19.0919 14.1421
1 2.1213 19.799 13.435
1 2.8284 19.799 14.1421
1 2.1213 19.799 14.8492
1 1.4142 19.0919 14.8492
1 1.4142 19.799 15.5563
1 2.1213 19.799 16.2635
1 2.1213 19.0919 15.5563
1 2.8284 19.0919 14.8492
1 2.1213 18.3848 14.8492
1 2.1213 17.6777 14.1421
100
Atoms. Timestep: 1000
1 2.99364 13.518 7.45683
1 2.67225 14.464 7.30741
1 2.34557 15.4029 7.13011
1 2.03199 16.3366 6.90579
1 1.74819 17.2703 6.64623
1 1.51613 18.2135 6.3713
1 1.39647 19.1849 6.12166
1 1.43923 20.1802 5.95332
1 1.67576 21.1603 5.9027
1 2.13425 22.0561 5.98574
1 2.82266 22.7632 6.20127
1 3.68477 23.1638 6.54229
1 4.59103 23.1576 6.98736
1 5.35748 22.7316 7.48835
1 5.83916 21.9847 7.9672
1 6.00632 21.0655 8.35017
1 5.92251 20.0956 8.62063
1 5.67613 19.1351 8.8109
1 5.3555 18.1888 8.9586
1 5.03293 17.2442 9.11361
1 4.77462 16.2919 9.33002
1 4.63277 15.3352 9.62124
1 4.67151 14.3943 9.98646
1 4.95513 13.5354 10.4357
1 5.51253 12.8626 10.9431
1 6.30816 12.5006 11.4489
1 7.22697 12.5182 11.8672
1 8.13182 12.8685 12.1483
1 8.92581 13.4755 12.297
1 9.55656 14.2642 12.3252
1 9.99074 15.1732 12.2538
1 10.2343 16.144 12.1175
1 10.299 17.1377 11.9492
1 10.1511 18.1245 11.7942
1 9.77777 19.059 11.7094
1 9.19159 19.8804 11.7425
1 8.41744 20.5062 11.9117
1 7.51888 20.8544 12.2141
1 6.58989 20.8732 12.6102
1 5.72487 20.5802 13.0425
1 4.99837 20.0142 13.4564
1 4.44802 19.2414 13.803
1 4.0699 18.3415 14.0633
1 3.83948 17.376 14.252
1 3.74115 16.3794 14.3862
1 3.78844 15.3731 14.456
1 3.96801 14.3794 14.4445
1 4.24988 13.4139 14.3511
1 4.60364 12.4817 14.1905
1 4.99056 11.5667 14.0082
1 5.39685 10.6598 13.8289
1 5.82303 9.76262 13.6461
1 6.25717 8.8691 13.4616
1 6.662 7.96068 13.2858
1 6.97521 7.01564 13.1176
1 7.13057 6.03067 12.9577
1 7.04556 5.03227 12.8344
1 6.65846 4.10075 12.79
1 5.98609 3.34926 12.8505
1 5.10965 2.87824 13.0222
1 4.145 2.73154 13.2837
1 3.2009 2.89182 13.6037
1 2.34459 3.31476 13.931
1 1.61789 3.95499 14.218
1 1.05458 4.76232 14.4464
1 0.678736 5.68461 14.6163
1 0.481886 6.66796 14.7382
1 0.437439 7.67414 14.8206
1 0.511727 8.68036 14.8747
1 0.686857 9.67464 14.8915
1 0.972056 10.6433 14.8538
1 1.38113 11.5619 14.7517
1 1.8861 12.4158 14.5644
1 2.43543 13.2085 14.2669
1 2.99064 13.941 13.8478
1 3.51113 14.616 13.306
1 3.94263 15.2424 12.6426
1 4.21417 15.8142 11.8563
1 4.26349 16.3301 10.9897
1 4.05305 16.7901 10.1157
1 3.58963 17.1865 9.31101
1 2.8975 17.5426 8.66694
1 2.02476 17.8672 8.27623
1 1.06422 18.1703 8.20687
1 0.137555 18.4661 8.48002
1 -0.624794 18.7597 9.07306
1 -1.11886 19.0432 9.9069
1 -1.3099 19.2996 10.8654
1 -1.20826 19.5165 11.8461
1 -0.873605 19.6567 12.7881
1 -0.399944 19.6868 13.6791
1 0.146608 19.6127 14.5249
1 0.704412 19.4484 15.3504
1 1.22833 19.198 16.177
1 1.69554 18.8647 17.0083
1 2.09234 18.4699 17.8493
1 2.40931 18.0453 18.7097
1 2.67068 17.596 19.5763
1 2.91265 17.1243 20.4362
1 3.14101 16.6474 21.2966
100
Atoms. Timestep: 2000
1 -1.10122 13.4836 5.11772
1 -1.05408 14.4744 4.92912
1 -0.990678 15.4651 4.74054
1 -0.891002 16.4536 4.5585
1 -0.73912 17.4382 4.39521
1 -0.523173 18.4185 4.28412
1 -0.232152 19.3851 4.25646
1 0.146919 20.3176 4.33744
1 0.621216 21.1824 4.55443
1 1.19583 21.924 4.92794
1 1.85748 22.4698 5.46085
1 2.56023 22.7497 6.13008
1 3.23704 22.733 6.879
1 3.82691 22.4287 7.64004
1 4.30237 21.8804 8.34236
1 4.66292 21.1473 8.93589
1 4.93748 20.2943 9.40171
1 5.17013 19.3751 9.74849
1 5.38319 18.4226 10.0078
1 5.60623 17.4581 10.2085
1 5.87612 16.5006 10.3828
1 6.23261 15.5697 10.5442
1 6.71822 14.6985 10.7041
1 7.35326 13.931 10.872
1 8.14072 13.3283 11.0645
1 9.0507 12.9521 11.2896
1 10.0223 12.8663 11.5528
1 10.9587 13.1068 11.8456
1 11.7554 13.6496 12.1478
1 12.3433 14.4181 12.4379
1 12.6958 15.3283 12.6976
1 12.8084 16.3078 12.9167
1 12.6781 17.2941 13.0904
1 12.3279 18.2327 13.2206
1 11.7833 19.0767 13.3238
1 11.0644 19.7801 13.4148
1 10.2042 20.3014 13.5088
1 9.24738 20.6087 13.6115
1 8.24437 20.6669 13.7164
1 7.2636 20.4485 13.8138
1 6.37691 19.9716 13.8863
1 5.63438 19.2893 13.9251
1 5.06162 18.4576 13.9253
1 4.65116 17.5353 13.8935
1 4.39944 16.5592 13.833
1 4.30377 15.5574 13.748
1 4.3499 14.5528 13.6518
1 4.52434 13.5617 13.5591
1 4.80272 12.5943 13.4736
1 5.15206 11.65 13.3895
1 5.52471 10.7156 13.2992
1 5.88891 9.77775 13.2086
1 6.21933 8.8271 13.1209
1 6.48654 7.85548 13.0496
1 6.65254 6.86 13.0167
1 6.67924 5.85056 13.0319
1 6.52366 4.85516 13.0985
1 6.15763 3.92249 13.2238
1 5.57518 3.12142 13.4205
1 4.8047 2.53189 13.6993
1 3.91677 2.20859 14.0543
1 2.99077 2.18674 14.4567
1 2.1094 2.46296 14.8638
1 1.34 3.00958 15.2222
1 0.738168 3.7733 15.4943
1 0.334629 4.68557 15.6517
1 0.136383 5.67526 15.6793
1 0.126634 6.68066 15.5829
1 0.282637 7.65661 15.3747
1 0.57866 8.56981 15.0601
1 0.973695 9.40626 14.6554
1 1.42886 10.163 14.1655
1 1.89437 10.8631 13.6055
1 2.33544 11.5306 12.9886
1 2.73418 12.1858 12.3311
1 3.07873 12.8504 11.6527
1 3.34797 13.5502 10.9764
1 3.51688 14.3078 10.3298
1 3.55754 15.1304 9.7453
1 3.449 15.9986 9.24105
1 3.17965 16.8876 8.8448
1 2.76252 17.7727 8.59513
1 2.22413 18.6236 8.52065
1 1.60351 19.4106 8.6447
1 0.945073 20.0954 8.98649
1 0.309919 20.6419 9.54993
1 -0.244616 21.0355 10.2963
1 -0.669274 21.2663 11.1828
1 -0.934006 21.3245 12.1559
1 -1.04172 21.2355 13.1561
1 -1.0128 21.0283 14.1442
1 -0.878332 20.736 15.1015
1 -0.658935 20.3849 16.0228
1 -0.361469 19.9941 16.9051
1 -0.00688685 19.5728 17.7515
1 0.388718 19.1309 18.5687
1 0.798311 18.6848 19.3765
1 1.20284 18.2424 20.1893
1 1.59561 17.797 21.0063
1 1.97712 17.3504 21.8275
100
Atoms. Timestep: 3000
1 -4.24884 14.3427 1.02393
1 -3.82657 15.1959 1.36044
1 -3.40769 16.0493 1.70304
1 -2.99842 16.9 2.06172
1 -2.59284 17.7373 2.45462
1 -2.16862 18.5425 2.89212
1 -1.71771 19.3104 3.36814
1 -1.2232 20.0177 3.89173
1 -0.655 20.6173 4.47186
1 -0.0158072 21.0641 5.11267
1 0.668414 21.3384 5.80255
1 1.37283 21.4374 6.51891
1 2.07739 21.338 7.23525
1 2.75404 21.0354 7.92117
1 3.3839 20.5583 8.55028
1 3.97588 19.9498 9.09786
1 4.53924 19.2487 9.55794
1 5.08542 18.4923 9.94587
1 5.63498 17.7051 10.261
1 6.21006 16.9126 10.5091
1 6.8234 16.135 10.7111
1 7.49606 15.4021 10.8864
1 8.25558 14.7573 11.0538
1 9.10106 14.2387 11.2467
1 10.0146 13.8782 11.4833
1 10.9708 13.7055 11.759
1 11.9321 13.7578 12.0653
1 12.8438 14.0392 12.3969
1 13.6459 14.5415 12.7497
1 14.2642 15.2511 13.1156
1 14.6374 16.1144 13.4841
1 14.7313 17.0607 13.8237
1 14.5371 18.011 14.1044
1 14.0781 18.883 14.3249
1 13.4052 19.6202 14.4802
1 12.5687 20.1785 14.5718
1 11.6224 20.5294 14.6074
1 10.6211 20.6592 14.5828
1 9.61858 20.5695 14.5019
1 8.66145 20.2772 14.368
1 7.78554 19.8054 14.1952
1 7.02043 19.1774 13.9962
1 6.40195 18.4081 13.7843
1 5.94691 17.5289 13.5847
1 5.65268 16.5802 13.4015
1 5.49938 15.5962 13.2333
1 5.45791 14.5998 13.071
1 5.5022 13.6035 12.9101
1 5.61563 12.6114 12.7565
1 5.78728 11.6266 12.6071
1 6.00048 10.6477 12.4776
1 6.22222 9.66578 12.3896
1 6.42015 8.67505 12.3691
1 6.56147 7.67699 12.4334
1 6.62641 6.68026 12.5866
1 6.60272 5.70126 12.8331
1 6.4615 4.75432 13.1552
1 6.17591 3.86156 13.5315
1 5.7116 3.07109 13.9544
1 5.06342 2.44509 14.4111
1 4.27033 2.03181 14.8806
1 3.37304 1.8813 15.3183
1 2.43461 2.02047 15.6657
1 1.53813 2.4375 15.8728
1 0.761327 3.08012 15.925
1 0.152593 3.88137 15.8347
1 -0.250206 4.78022 15.6133
1 -0.440062 5.71348 15.2783
1 -0.452028 6.63135 14.857
1 -0.336409 7.5148 14.3821
1 -0.133882 8.35802 13.8644
1 0.131714 9.16273 13.3147
1 0.438909 9.94029 12.7482
1 0.753134 10.7046 12.1672
1 1.05344 11.462 11.5698
1 1.32579 12.2234 10.9651
1 1.56819 12.9991 10.3654
1 1.7679 13.8072 9.79338
1 1.90707 14.6694 9.28623
1 1.97783 15.5925 8.88282
1 1.98089 16.5647 8.60863
1 1.91972 17.5678 8.50663
1 1.79612 18.5649 8.6098
1 1.61302 19.5082 8.92156
1 1.38311 20.3518 9.42758
1 1.11866 21.0516 10.106
1 0.839335 21.5847 10.9171
1 0.548196 21.9574 11.81
1 0.258817 22.1801 12.7515
1 -0.00422462 22.267 13.7228
1 -0.232867 22.232 14.706
1 -0.420942 22.0777 15.6861
1 -0.541706 21.8146 16.6535
1 -0.582241 21.457 17.5969
1 -0.564489 21.0322 18.5129
1 -0.506559 20.5589 19.4032
1 -0.418029 20.0524 20.2723
1 -0.320706 19.5203 21.1259
1 -0.220793 18.9658 21.964
1 -0.114578 18.4048 22.7972
100
Atoms. Timestep: 4000
1 -6.04333 16.2338 -1.10213
1 -5.50481 16.7745 -0.440548
1 -4.96173 17.3039 0.22648
1 -4.40834 17.809 0.903477
1 -3.84081 18.2808 1.59268
1 -3.25496 18.7093 2.29487
1 -2.64697 19.0842 3.00873
1 -2.01332 19.3892 3.73341
1 -1.34889 19.6082 4.46162
1 -0.65245 19.7313 5.18267
1 0.0691487 19.7517 5.88889
1 0.811516 19.6666 6.56849
1 1.56912 19.4772 7.20905
1 2.33466 19.1881 7.8009
1 3.10399 18.8072 8.3335
1 3.87593 18.3541 8.80165
1 4.65043 17.849 9.20841
1 5.42763 17.3056 9.55615
1 6.20616 16.7358 9.85478
1 6.99192 16.161 10.124
1 7.78979 15.6012 10.3897
1 8.61196 15.0831 10.6654
1 9.47256 14.6392 10.9532
1 10.3736 14.2972 11.255
1 11.3078 14.0938 11.5801
1 12.2513 14.0658 11.939
1 13.1638 14.2368 12.3363
1 13.994 14.6134 12.7704
1 14.6843 15.1837 13.2369
1 15.1831 15.9212 13.713
1 15.4502 16.7825 14.1674
1 15.4662 17.7062 14.575
1 15.2259 18.6258 14.9156
1 14.7353 19.4715 15.1682
1 14.0278 20.1755 15.3215
1 13.1598 20.6882 15.3801
1 12.1946 20.9842 15.3506
1 11.1931 21.047 15.2385
1 10.2157 20.8802 15.0473
1 9.31256 20.5135 14.7839
1 8.51511 19.9767 14.4745
1 7.844 19.299 14.1423
1 7.30694 18.5136 13.8034
1 6.89696 17.6491 13.4798
1 6.60113 16.7292 13.1858
1 6.41125 15.7701 12.9324
1 6.32656 14.7853 12.7267
1 6.33428 13.787 12.575
1 6.40943 12.7841 12.4826
1 6.53342 11.7824 12.4471
1 6.6888 10.7847 12.4643
1 6.8547 9.79068 12.5321
1 7.00605 8.79879 12.6475
1 7.11357 7.80762 12.8095
1 7.14734 6.81972 13.0164
1 7.08452 5.84356 13.2668
1 6.89827 4.89447 13.5573
1 6.55667 4.00076 13.8804
1 6.03527 3.20829 14.2262
1 5.33404 2.57223 14.5775
1 4.48084 2.14314 14.9054
1 3.5277 1.95641 15.1818
1 2.5398 2.02149 15.3804
1 1.58005 2.32159 15.4728
1 0.705 2.82471 15.4411
1 -0.0410522 3.48639 15.2813
1 -0.63803 4.25172 15.0027
1 -1.07929 5.07673 14.6226
1 -1.36096 5.93218 14.1656
1 -1.48824 6.79126 13.6502
1 -1.48227 7.63579 13.0969
1 -1.37054 8.46025 12.5247
1 -1.1804 9.26539 11.9454
1 -0.933566 10.0593 11.372
1 -0.648303 10.8595 10.8258
1 -0.333689 11.6772 10.3231
1 -0.00273941 12.5244 9.88394
1 0.322851 13.4093 9.52282
1 0.618399 14.3358 9.25112
1 0.873101 15.297 9.07582
1 1.0736 16.2837 9.00034
1 1.21162 17.2837 9.03437
1 1.28401 18.2777 9.19813
1 1.29371 19.2391 9.50718
1 1.246 20.1359 9.96979
1 1.16259 20.9324 10.585
1 1.05469 21.5991 11.3358
1 0.921207 22.1152 12.1935
1 0.764101 22.4671 13.1269
1 0.595776 22.6607 14.1037
1 0.425516 22.7119 15.098
1 0.255705 22.6443 16.0913
1 0.0813646 22.4785 17.0721
1 -0.0960916 22.2383 18.0367
1 -0.279056 21.9574 18.9892
1 -0.475699 21.649 19.9306
1 -0.689938 21.3232 20.862
1 -0.914122 20.9914 21.789
1 -1.14212 20.6557 22.7138
1 -1.37369 20.3232 23.6389
100
Atoms. Timestep: 5000
1 -7.22805 18.3488 -1.40404
1 -6.52946 18.4591 -0.683159
1 -5.82769 18.5576 0.0366229
1 -5.11872 18.6289 0.752441
1 -4.40157 18.6697 1.46218
1 -3.6791 18.6796 2.16786
1 -2.95389 18.6494 2.87015
1 -2.22213 18.5818 3.56302
1 -1.48145 18.4734 4.24107
1 -0.729479 18.3187 4.89711
1 0.0368953 18.1269 5.52599
1 0.816833 17.905 6.12789
1 1.61417 17.6498 6.69266
1 2.42885 17.36 7.21445
1 3.25949 17.0425 7.69392
1 4.1079 16.7084 8.12864
1 4.9731 16.3675 8.52316
1 5.85194 16.0241 8.88402
1 6.73921 15.6812 9.22396
1 7.6304 15.3424 9.55799
1 8.52413 15.0207 9.90178
1 9.42214 14.7385 10.2687
1 10.3296 14.5209 10.6558
1 11.2463 14.3914 11.0599
1 12.1627 14.3756 11.4841
1 13.0594 14.5023 11.9312
1 13.904 14.7848 12.4074
1 14.6577 15.2265 12.9139
1 15.2748 15.8232 13.4456
1 15.7075 16.5603 13.9832
1 15.9188 17.4019 14.4994
1 15.8919 18.2956 14.9686
1 15.6169 19.1843 15.3612
1 15.1009 20.0012 15.6542
1 14.3806 20.6856 15.8344
1 13.5067 21.1867 15.906
1 12.538 21.4708 15.8778
1 11.5373 21.5246 15.7539
1 10.5674 21.3453 15.5378
1 9.68441 20.9511 15.247
1 8.92429 20.3814 14.9042
1 8.30514 19.676 14.5318
1 7.82949 18.8677 14.1582
1 7.48268 17.9869 13.8068
1 7.24468 17.0576 13.4912
1 7.10097 16.0944 13.2245
1 7.04325 15.1079 13.0169
1 7.06127 14.1071 12.8818
1 7.12945 13.1011 12.8221
1 7.22844 12.0961 12.8282
1 7.34188 11.0951 12.8946
1 7.44942 10.098 13.0136
1 7.52449 9.10365 13.1726
1 7.54049 8.11087 13.357
1 7.47464 7.12374 13.5597
1 7.30891 6.15289 13.7823
1 7.02441 5.21224 14.0138
1 6.59928 4.32588 14.2438
1 6.0172 3.52972 14.4592
1 5.27796 2.86689 14.6425
1 4.40614 2.37739 14.7843
1 3.44277 2.08706 14.8679
1 2.43588 2.01253 14.8759
1 1.43968 2.1571 14.7974
1 0.507169 2.50179 14.6204
1 -0.318672 3.01338 14.3451
1 -1.0138 3.65198 13.9868
1 -1.57068 4.38097 13.5648
1 -1.98326 5.17587 13.098
1 -2.25329 6.01502 12.6053
1 -2.38996 6.87932 12.1016
1 -2.4103 7.75454 11.5982
1 -2.33607 8.63263 11.1049
1 -2.18321 9.5122 10.6326
1 -1.95997 10.3961 10.1977
1 -1.6773 11.2893 9.82083
1 -1.35001 12.1973 9.52347
1 -0.999039 13.1216 9.31711
1 -0.651835 14.0631 9.20294
1 -0.320612 15.0171 9.17601
1 -0.0127983 15.9774 9.23431
1 0.264684 16.9372 9.38279
1 0.501064 17.8877 9.62953
1 0.692797 18.8117 9.98959
1 0.838832 19.6847 10.4759
1 0.939935 20.4815 11.0882
1 0.997976 21.1769 11.8184
1 1.00751 21.7554 12.6461
1 0.963752 22.2089 13.5477
1 0.870077 22.5401 14.4973
1 0.73797 22.7596 15.4742
1 0.573173 22.8788 16.4635
1 0.378582 22.9202 17.4536
1 0.162829 22.9046 18.4399
1 -0.0696326 22.8513 19.421
1 -0.316152 22.7799 20.3975
1 -0.580041 22.6983 21.3686
1 -0.859527 22.6125 22.335
1 -1.14345 22.5254 23.3
1 -1.42354 22.4346 24.2659
100
Atoms. Timestep: 6000
1 -7.52687 19.8613 -0.355872
1 -6.73809 19.5504 0.192804
1 -5.94921 19.2391 0.741131
1 -5.16047 18.9269 1.28918
1 -4.37149 18.6134 1.83603
1 -3.58052 18.3 2.38008
1 -2.78412 17.9902 2.91841
1 -1.9792 17.6845 3.44609
1 -1.16476 17.3818 3.96092
1 -0.341908 17.0799 4.46272
1 0.489072 16.7784 4.9511
1 1.32725 16.4752 5.426
1 2.1724 16.1704 5.88734
1 3.02447 15.8667 6.33658
1 3.88388 15.5685 6.77533
1 4.75299 15.2843 7.2043
1 5.63241 15.0204 7.62506
1 6.52337 14.7842 8.03801
1 7.42573 14.5827 8.44456
1 8.33847 14.4257 8.84741
1 9.2596 14.3231 9.24891
1 10.1831 14.2838 9.65597
1 11.101 14.318 10.0758
1 12.0031 14.4352 10.5144
1 12.875 14.645 10.9788
1 13.7 14.9539 11.4725
1 14.458 15.3696 11.9947
1 15.1243 15.8945 12.5428
1 15.6688 16.5266 13.1119
1 16.0606 17.2561 13.69
1 16.2679 18.0629 14.261
1 16.2599 18.9137 14.8049
1 16.0174 19.7618 15.2967
1 15.5408 20.5496 15.7111
1 14.8517 21.2177 16.025
1 13.9937 21.7123 16.2226
1 13.0276 21.9956 16.3005
1 12.0197 22.0476 16.2655
1 11.0339 21.8715 16.1345
1 10.1231 21.4865 15.9292
1 9.32566 20.9214 15.6752
1 8.66437 20.2106 15.3968
1 8.14534 19.3912 15.1156
1 7.76346 18.4945 14.8512
1 7.50818 17.5464 14.6149
1 7.36286 16.5672 14.4149
1 7.30626 15.5718 14.2541
1 7.31576 14.5695 14.1308
1 7.3701 13.5648 14.044
1 7.44733 12.5591 13.993
1 7.5256 11.5524 13.9789
1 7.5806 10.5442 14.0017
1 7.5895 9.53594 14.0578
1 7.53344 8.531 14.1405
1 7.39061 7.53635 14.2406
1 7.14463 6.5625 14.3448
1 6.78354 5.62393 14.4362
1 6.29876 4.7404 14.4996
1 5.68806 3.93644 14.521
1 4.95889 3.2385 14.4894
1 4.12576 2.67553 14.3955
1 3.21433 2.2725 14.2323
1 2.25813 2.04591 13.9993
1 1.29463 2.00596 13.6995
1 0.3619 2.15481 13.3421
1 -0.504628 2.48267 12.9402
1 -1.27557 2.97091 12.5075
1 -1.9286 3.59783 12.06
1 -2.4508 4.33725 11.6123
1 -2.8391 5.16285 11.1795
1 -3.0989 6.0493 10.7715
1 -3.24123 6.97513 10.3941
1 -3.27951 7.92536 10.0545
1 -3.2267 8.88956 9.75876
1 -3.09761 9.86037 9.51221
1 -2.90256 10.8324 9.31945
1 -2.65233 11.8019 9.18767
1 -2.36128 12.7669 9.12456
1 -2.04065 13.7244 9.1407
1 -1.70208 14.6705 9.24174
1 -1.3582 15.6004 9.43383
1 -1.02029 16.507 9.72329
1 -0.698812 17.3822 10.1111
1 -0.402599 18.2179 10.5946
1 -0.139721 19.0073 11.1669
1 0.0861061 19.745 11.8186
1 0.268707 20.4267 12.5411
1 0.407128 21.0506 13.3229
1 0.500764 21.6182 14.1529
1 0.551121 22.131 15.0213
1 0.56115 22.5894 15.921
1 0.53412 22.9944 16.8456
1 0.473468 23.3491 17.7892
1 0.382786 23.6572 18.7465
1 0.268991 23.9252 19.7134
1 0.138997 24.1635 20.6861
1 -0.00140662 24.3816 21.662
1 -0.147137 24.5884 22.6397
1 -0.29555 24.7905 23.618
1 -0.444233 24.99 24.5968
100
Atoms. Timestep: 7000
1 -7.42706 19.7317 0.38748
1 -6.58962 19.3915 0.837649
1 -5.75278 19.0465 1.28522
1 -4.91703 18.6936 1.72887
1 -4.08287 18.3316 2.16816
1 -3.24911 17.9608 2.60079
1 -2.41692 17.5837 3.03102
1 -1.5847 17.2036 3.45846
1 -0.74967 16.8235 3.88047
1 0.0903387 16.4486 4.29719
1 0.93929 16.0859 4.70688
1 1.79906 15.7392 5.10778
1 2.67254 15.4149 5.49759
1 3.56034 15.119 5.87767
1 4.46169 14.8562 6.25017
1 5.37607 14.635 6.61764
1 6.30071 14.4569 6.98269
1 7.23416 14.3237 7.34484
1 8.17247 14.2354 7.7081
1 9.11026 14.1896 8.08033
1 10.045 14.189 8.46284
1 10.9739 14.2423 8.85539
1 11.8915 14.3631 9.25977
1 12.7866 14.5661 9.68117
1 13.6422 14.8659 10.1262
1 14.4382 15.2706 10.5977
1 15.1528 15.7787 11.0986
1 15.7642 16.383 11.6285
1 16.2458 17.0731 12.1869
1 16.5684 17.8315 12.7707
1 16.7085 18.6299 13.3729
1 16.6476 19.4346 13.9799
1 16.3795 20.2069 14.5726
1 15.9097 20.9018 15.1349
1 15.2575 21.4772 15.648
1 14.456 21.8968 16.0966
1 13.546 22.1308 16.466
1 12.5754 22.1626 16.7424
1 11.5971 21.9862 16.9197
1 10.6613 21.6146 16.996
1 9.80923 21.0728 16.9814
1 9.0704 20.3904 16.8908
1 8.45947 19.5994 16.7455
1 7.97792 18.7295 16.5688
1 7.61462 17.8064 16.3788
1 7.35128 16.8491 16.1926
1 7.17277 15.87 16.0211
1 7.0642 14.8778 15.8677
1 7.00781 13.8782 15.7347
1 6.98153 12.8745 15.6248
1 6.96549 11.8686 15.5342
1 6.94077 10.8623 15.4506
1 6.88969 9.8571 15.3662
1 6.79779 8.85555 15.2743
1 6.65023 7.86229 15.1664
1 6.43148 6.8851 15.0338
1 6.12972 5.93523 14.8701
1 5.73446 5.02793 14.6689
1 5.2328 4.18617 14.4249
1 4.61703 3.43886 14.1387
1 3.8948 2.81229 13.8138
1 3.08196 2.33433 13.4521
1 2.20418 2.02873 13.0567
1 1.29698 1.90809 12.6294
1 0.396214 1.97581 12.1776
1 -0.465542 2.22408 11.7131
1 -1.25828 2.64079 11.2465
1 -1.95993 3.20811 10.7931
1 -2.5561 3.90301 10.367
1 -3.03936 4.7005 9.97915
1 -3.40711 5.57719 9.63818
1 -3.65948 6.51267 9.35303
1 -3.80547 7.48658 9.12872
1 -3.85406 8.48299 8.9711
1 -3.81518 9.48853 8.88521
1 -3.70357 10.4923 8.87445
1 -3.53412 11.4857 8.94182
1 -3.31982 12.4621 9.08603
1 -3.07033 13.4168 9.30093
1 -2.7965 14.3486 9.57813
1 -2.50262 15.2562 9.90949
1 -2.19491 16.1399 10.2896
1 -1.88306 16.9989 10.7196
1 -1.57556 17.8286 11.2067
1 -1.27845 18.623 11.7552
1 -0.997556 19.3775 12.365
1 -0.738577 20.0905 13.0319
1 -0.504019 20.7613 13.7496
1 -0.294772 21.3889 14.5126
1 -0.112604 21.9735 15.3158
1 0.0450931 22.5202 16.1501
1 0.181507 23.036 17.0075
1 0.298004 23.5286 17.8813
1 0.398537 24.0024 18.7674
1 0.487733 24.4629 19.6616
1 0.5668 24.9195 20.5588
1 0.638666 25.3785 21.4555
1 0.705959 25.8439 22.3492
1 0.770378 26.3147 23.2402
1 0.831481 26.7882 24.13
100
Atoms. Timestep: 8000
1 -7.41022 19.5811 0.669502
1 -6.56433 19.2099 1.07785
1 -5.71813 18.8368 1.48375
1 -4.87154 18.4601 1.88554
1 -4.0247 18.0777 2.28117
1 -3.17648 17.6922 2.67077
1 -2.32604 17.3061 3.05496
1 -1.47252 16.9232 3.43585
1 -0.613817 16.5471 3.81208
1 0.25177 16.1808 4.18185
1 1.12608 15.829 4.54486
1 2.01167 15.4982 4.90008
1 2.90944 15.1931 5.24764
1 3.81931 14.9167 5.58766
1 4.74124 14.6728 5.91989
1 5.67443 14.4677 6.24675
1 6.61688 14.3083 6.57253
1 7.56659 14.1999 6.89832
1 8.52008 14.1455 7.22675
1 9.47299 14.1446 7.56129
1 10.4207 14.2002 7.9057
1 11.3571 14.3202 8.2644
1 12.273 14.5154 8.64252
1 13.1563 14.7944 9.045
1 13.9913 15.1641 9.47655
1 14.7581 15.6267 9.94354
1 15.438 16.1766 10.4489
1 16.0105 16.806 10.9931
1 16.4532 17.5003 11.5777
1 16.7421 18.24 12.2017
1 16.8565 18.9977 12.8596
1 16.7827 19.7409 13.5393
1 16.5166 20.4344 14.2233
1 16.0652 21.0408 14.8926
1 15.4464 21.5262 15.5261
1 14.6898 21.8639 16.1035
1 13.8321 22.032 16.6093
1 12.9143 22.0176 17.0306
1 11.9791 21.8175 17.355
1 11.0692 21.4396 17.5769
1 10.2221 20.9038 17.7009
1 9.46465 20.2369 17.7379
1 8.81225 19.4667 17.7041
1 8.26977 18.6191 17.6192
1 7.83217 17.7171 17.4984
1 7.48902 16.7783 17.3551
1 7.22911 15.8151 17.1992
1 7.04078 14.8365 17.0365
1 6.90651 13.8492 16.8722
1 6.80835 12.8576 16.7084
1 6.73028 11.8644 16.5437
1 6.65467 10.8722 16.3711
1 6.56417 9.88353 16.1862
1 6.44296 8.90115 15.9855
1 6.27708 7.92966 15.7651
1 6.05269 6.97613 15.5193
1 5.7583 6.0516 15.2391
1 5.3826 5.17089 14.9179
1 4.91456 4.35369 14.5531
1 4.34955 3.62159 14.1471
1 3.69038 2.99831 13.7034
1 2.94718 2.50867 13.2262
1 2.13902 2.17462 12.7212
1 1.29065 2.01356 12.1977
1 0.431794 2.03459 11.6669
1 -0.406179 2.23909 11.1417
1 -1.19472 2.62008 10.6389
1 -1.90934 3.16075 10.1733
1 -2.53197 3.83802 9.75686
1 -3.053 4.6251 9.39782
1 -3.46698 5.49755 9.10212
1 -3.77433 6.43225 8.87435
1 -3.9801 7.40859 8.71791
1 -4.0902 8.4092 8.63607
1 -4.11315 9.41886 8.63009
1 -4.05891 10.4251 8.69793
1 -3.9398 11.4182 8.83757
1 -3.76814 12.3911 9.04705
1 -3.55564 13.34 9.31979
1 -3.31051 14.2629 9.64864
1 -3.03787 15.1594 10.0258
1 -2.7448 16.0294 10.4466
1 -2.43933 16.8727 10.9106
1 -2.13141 17.6874 11.4219
1 -1.82654 18.4701 11.9826
1 -1.52794 19.2189 12.591
1 -1.23982 19.9333 13.2441
1 -0.964316 20.6145 13.9369
1 -0.704823 21.2644 14.6651
1 -0.464522 21.8856 15.4242
1 -0.2419 22.4813 16.2087
1 -0.0353072 23.0549 17.0139
1 0.157382 23.6096 17.8356
1 0.339643 24.1497 18.6692
1 0.515353 24.6793 19.511
1 0.685495 25.2026 20.3578
1 0.851184 25.7249 21.2061
1 1.01595 26.248 22.0541
1 1.1803 26.7729 22.9011
1 1.34496 27.2992 23.7472
100
Atoms. Timestep: 9000
1 -7.45411 19.4338 0.991562
1 -6.60088 19.0117 1.32893
1 -5.74541 18.5895 1.66057
1 -4.88703 18.1685 1.98594
1 -4.02572 17.7544 2.31235
1 -3.16143 17.3521 2.64539
1 -2.29285 16.968 2.98837
1 -1.41827 16.6069 3.34138
1 -0.533085 16.2711 3.69284
1 0.363714 15.9549 4.03315
1 1.27107 15.6498 4.35533
1 2.18894 15.3587 4.65998
1 3.11527 15.0853 4.95577
1 4.04978 14.8306 5.24256
1 4.99481 14.6045 5.51875
1 5.94724 14.4091 5.79331
1 6.90612 14.2529 6.07016
1 7.87162 14.1504 6.34874
1 8.83899 14.1126 6.63672
1 9.80213 14.1492 6.93833
1 10.7538 14.2692 7.25436
1 11.6824 14.4742 7.59437
1 12.5757 14.7657 7.96418
1 13.4242 15.1394 8.36429
1 14.2163 15.5857 8.80393
1 14.9341 16.0972 9.29671
1 15.5635 16.6706 9.84004
1 16.0917 17.2982 10.429
1 16.5023 17.9684 11.063
1 16.7769 18.6617 11.7438
1 16.8969 19.3542 12.469
1 16.8466 20.0168 13.2295
1 16.6158 20.6193 14.0066
1 16.2026 21.1285 14.7747
1 15.6254 21.5144 15.5079
1 14.9154 21.7549 16.1846
1 14.1088 21.8312 16.7875
1 13.2476 21.7395 17.3069
1 12.3695 21.4864 17.7371
1 11.5062 21.0858 18.075
1 10.6848 20.554 18.3244
1 9.92457 19.9106 18.4918
1 9.23833 19.1759 18.5857
1 8.64162 18.3618 18.6143
1 8.14304 17.4841 18.5842
1 7.73555 16.5639 18.5008
1 7.41318 15.6156 18.373
1 7.16349 14.6519 18.2039
1 6.9618 13.6836 18.0017
1 6.79572 12.7139 17.7745
1 6.65635 11.7456 17.5243
1 6.52578 10.7819 17.2521
1 6.38171 9.82381 16.9669
1 6.20354 8.87368 16.6747
1 5.98326 7.93558 16.372
1 5.71832 7.01718 16.046
1 5.40409 6.12939 15.6815
1 5.02971 5.28645 15.2703
1 4.57944 4.50529 14.8159
1 4.04848 3.80398 14.3201
1 3.44304 3.19994 13.7833
1 2.76723 2.71901 13.2076
1 2.03297 2.38517 12.6
1 1.26037 2.21627 11.9719
1 0.471902 2.22367 11.3406
1 -0.309684 2.40187 10.7262
1 -1.06955 2.74841 10.158
1 -1.78656 3.25653 9.66013
1 -2.43965 3.90345 9.24187
1 -3.00607 4.66897 8.90536
1 -3.47239 5.52886 8.65455
1 -3.83992 6.45474 8.48901
1 -4.10979 7.4242 8.40459
1 -4.28401 8.41875 8.39006
1 -4.37103 9.42374 8.4383
1 -4.37426 10.428 8.54563
1 -4.29674 11.4212 8.71151
1 -4.15184 12.395 8.93727
1 -3.95864 13.3434 9.22608
1 -3.73173 14.2618 9.57957
1 -3.47974 15.1485 9.99243
1 -3.20548 16.0017 10.4581
1 -2.91426 16.8199 10.9736
1 -2.61268 17.6057 11.5316
1 -2.30827 18.3575 12.1334
1 -2.00695 19.08 12.7714
1 -1.71167 19.783 13.4336
1 -1.41807 20.4713 14.1119
1 -1.12493 21.146 14.8038
1 -0.834023 21.8076 15.5093
1 -0.545622 22.4537 16.23
1 -0.26195 23.0805 16.9694
1 0.0110477 23.6863 17.7301
1 0.272486 24.2753 18.5075
1 0.521162 24.8499 19.2999
1 0.75918 25.4118 20.1044
1 0.990307 25.9685 20.9145
1 1.21799 26.5178 21.7307
1 1.44698 27.0551 22.5545
1 1.67573 27.5882 23.3812
100
Atoms. Timestep: 10000
1 -7.57241 19.126 1.1407
1 -6.69243 18.7463 1.45919
1 -5.81253 18.3651 1.77611
1 -4.93111 17.9831 2.08769
1 -4.04632 17.6021 2.3909
1 -3.15843 17.2229 2.6874
1 -2.26726 16.848 2.97913
1 -1.37142 16.4804 3.26597
1 -0.469618 16.1236 3.54761
1 0.43977 15.782 3.8235
1 1.35798 15.4605 4.09471
1 2.28618 15.1662 4.36228
1 3.22528 14.9038 4.62518
1 4.17559 14.678 4.88215
1 5.13597 14.4942 5.13512
1 6.10404 14.3582 5.38893
1 7.07676 14.2763 5.64795
1 8.05032 14.2529 5.91519
1 9.02065 14.2912 6.19265
1 9.98287 14.3921 6.48263
1 10.931 14.5565 6.7892
1 11.8568 14.7867 7.1205
1 12.7491 15.0872 7.4855
1 13.5938 15.4619 7.89276
1 14.3755 15.9085 8.35055
1 15.0791 16.4219 8.86179
1 15.6897 16.9938 9.42734
1 16.1906 17.6114 10.0498
1 16.5633 18.2583 10.7297
1 16.7942 18.9131 11.463
1 16.8722 19.5528 12.2404
1 16.7907 20.1511 13.0499
1 16.551 20.6799 13.8761
1 16.1599 21.1134 14.7002
1 15.6317 21.4277 15.5015
1 14.9895 21.6062 16.2602
1 14.2608 21.6388 16.9585
1 13.4738 21.5189 17.5799
1 12.6584 21.2456 18.1095
1 11.8449 20.828 18.5383
1 11.0598 20.2812 18.8617
1 10.3251 19.6244 19.0828
1 9.65428 18.8807 19.2126
1 9.05417 18.0701 19.2642
1 8.52697 17.2089 19.2487
1 8.06963 16.3115 19.1756
1 7.67752 15.389 19.0536
1 7.34525 14.4495 18.8898
1 7.06481 13.4998 18.6913
1 6.82514 12.5455 18.464
1 6.61388 11.5912 18.2097
1 6.41864 10.641 17.9288
1 6.22532 9.69895 17.6205
1 6.01974 8.77003 17.2817
1 5.79029 7.8593 16.9104
1 5.52552 6.97335 16.5043
1 5.21438 6.12206 16.0589
1 4.84685 5.31874 15.5697
1 4.41339 4.57862 15.0366
1 3.90878 3.91839 14.4626
1 3.3321 3.35501 13.8543
1 2.68726 2.90642 13.2197
1 1.98437 2.59095 12.5669
1 1.239 2.42473 11.9063
1 0.4697 2.42085 11.2522
1 -0.302373 2.5849 10.6223
1 -1.05434 2.91344 10.0337
1 -1.76519 3.3972 9.50405
1 -2.41596 4.0213 9.04915
1 -2.98905 4.76549 8.67815
1 -3.47339 5.6057 8.39615
1 -3.86382 6.51757 8.20611
1 -4.15846 7.47854 8.10777
1 -4.35942 8.46824 8.09749
1 -4.47143 9.46933 8.17084
1 -4.50261 10.4671 8.324
1 -4.46457 11.4503 8.55186
1 -4.36995 12.4117 8.84641
1 -4.22614 13.3472 9.19837
1 -4.03684 14.2553 9.59769
1 -3.8078 15.1344 10.0387
1 -3.54582 15.984 10.5177
1 -3.26008 16.8052 11.0312
1 -2.95903 17.5987 11.5786
1 -2.64827 18.364 12.1598
1 -2.33168 19.1016 12.7726
1 -2.01112 19.8126 13.4143
1 -1.68936 20.4985 14.0819
1 -1.3693 21.1634 14.7713
1 -1.05347 21.8113 15.4787
1 -0.743864 22.4444 16.2021
1 -0.438906 23.0652 16.938
1 -0.138017 23.6761 17.6838
1 0.157607 24.2783 18.4389
1 0.447409 24.8729 19.2021
1 0.733942 25.4632 19.9701
1 1.01925 26.0529 20.7389
1 1.30475 26.6432 21.5069
1 1.59141 27.2331 22.2748
1 1.87826 27.8235 23.0422
100
Atoms. Timestep: 11000
1 -7.52697 19.0071 1.12698
1 -6.6112 18.6032 1.32407
1 -5.80291 18.146 1.73039
1 -4.87004 17.7368 1.84968
1 -4.06458 17.3992 2.32325
1 -3.33457 16.9121 2.83168
1 -2.47114 16.5851 3.13958
1 -1.45607 16.4874 3.27891
1 -0.474021 16.3033 3.42883
1 0.438475 15.9231 3.70266
1 1.27973 15.402 4.10541
1 2.21542 14.9722 4.32537
1 3.2087 14.762 4.47815
1 4.18597 14.7477 4.72625
1 5.17135 14.7166 5.05739
1 6.13259 14.5252 5.32698
1 7.11226 14.2788 5.55201
1 8.11957 14.1246 5.73372
1 9.0853 14.0266 6.08333
1 9.97244 14.0863 6.63498
1 10.8697 14.3946 7.04604
1 11.6972 14.8429 7.3725
1 12.6598 15.1646 7.51347
1 13.5168 15.4579 8.03582
1 14.3239 15.8041 8.51122
1 14.9636 16.3391 9.12437
1 15.6346 16.9168 9.57503
1 16.0662 17.4897 10.3119
1 16.3478 18.2329 10.9143
1 16.6679 19.0179 11.4998
1 16.8849 19.8281 11.9994
1 16.8532 20.3538 12.8774
1 16.5798 20.6631 13.7518
1 16.3022 21.0145 14.6515
1 15.7663 21.3985 15.4403
1 15.0573 21.5942 16.1742
1 14.3538 21.6246 16.9417
1 13.643 21.3502 17.6101
1 12.8401 20.9768 18.1127
1 11.9719 20.7313 18.4951
1 11.0664 20.2568 18.6247
1 10.3639 19.5656 18.7995
1 9.74506 18.7849 18.8872
1 9.17389 17.9938 19.2163